; md.mdp - used as input into grompp to generate md.tpr
; Parameters describing what to do, when to stop and what to save
integrator  = md        ; leap-frog integrator
nsteps                  = 0
dt          = 0.002     ; 2 fs

; Output control
nstxout                 = 5000         ; suppress bulky .trr file by specifying
nstvout                 = 0         ; 0 for output frequency of nstxout,
nstfout                 = 0         ; nstvout, and nstfout
nstenergy               = 5000      ; save energies every 10.0 ps
nstlog                  = 5000      ; update log file every 10.0 ps
nstxout-compressed      = 5000      ; save compressed coordinates every 10.0 ps
compressed-x-grps       = System ; save the whole system

; Bond parameters
continuation            = yes
constraint_algorithm    = lincs ; holonomic constraints
constraints             = h-bonds ; bonds involving H are constrained
lincs_iter              = 1         ; accuracy of LINCS
lincs_order             = 4         ; also related to accuracy

; Neighbor searching and vdW
cutoff-scheme           = Verlet
ns_type                 = grid      ; search neighboring grid cells
nstlist                 = 20        ; largely irrelevant with Verlet
rlist                   = 1.2
vdwtype                 = cutoff
vdw-modifier            = force-switch
rvdw-switch             = 1.0
rvdw                    = 1.2       ; short-range van der Waals cutoff (in nm)

; Electrostatics
coulombtype             = PME ; Particle Mesh Ewald for long-range electrostatics
rcoulomb                = 1.2
pme_order               = 4         ; cubic interpolation
fourierspacing          = 0.16      ; grid spacing for FFT

; Temperature coupling
tcoupl                  = V-rescale                     ; modified Berendsen thermostat
tc-grps                 = Protein_CA1_LYS1 Water_and_ions    ; protein + CA1 + LYS1, then solvent/ions
tau_t                   = 0.1   0.1                     ; time constant, in ps
ref_t                   = 300   300                     ; reference temperature, one for each group, in K

; Pressure coupling is on.
; C-rescale is robust for production and remains suitable if optional weak
; ligand restraints are explicitly enabled for pose-refinement runs.
pcoupl                  = C-rescale ; pressure coupling for production MD
pcoupltype              = isotropic ; uniform scaling of box vectors
tau_p                   = 2.0                   ; time constant, in ps
ref_p                   = 1.0                   ; reference pressure, in bar
compressibility         = 4.5e-5                ; isothermal compressibility of water, bar^-1
refcoord_scaling        = com

; Periodic boundary conditions
pbc                     = xyz ; 3-D PBC

; Dispersion correction
DispCorr                = EnerPres ; account for cut-off vdW scheme

; Velocity generation
gen_vel                 = no
energygrps              = Protein LYS1
